h 0.75 0 11 tcp 40 ------- 0 0.0 3.0 0 0
+ 0.77 0 11 tcp 40 ------- 0 0.0 3.0 0 0
- 0.77 0 11 tcp 40 ------- 0 0.0 3.0 0 0
r 0.790009 11 3 tcp 40 ------- 0 0.0 3.0 0 0
h 0.790009 3 11 ack 40 ------- 0 3.0 0.0 0 1
+ 0.810009 3 11 ack 40 ------- 0 3.0 0.0 0 1
- 0.810009 3 11 ack 40 ------- 0 3.0 0.0 0 1
r 0.830018 11 0 ack 40 ------- 0 3.0 0.0 0 1
h 0.830018 0 11 tcp 1040 ------- 0 0.0 3.0 1 2
h 0.830018 0 11 tcp 1040 ------- 0 0.0 3.0 2 3
+ 0.850018 0 11 tcp 1040 ------- 0 0.0 3.0 1 2
- 0.850018 0 11 tcp 1040 ------- 0 0.0 3.0 1 2
+ 0.850018 0 11 tcp 1040 ------- 0 0.0 3.0 2 3
- 0.850104 0 11 tcp 1040 ------- 0 0.0 3.0 2 3
r 0.870107 11 3 tcp 1040 ------- 0 0.0 3.0 1 2
h 0.870107 3 11 ack 40 ------- 0 3.0 0.0 1 4
r 0.870192 11 3 tcp 1040 ------- 0 0.0 3.0 2 3
h 0.870192 3 11 ack 40 ------- 0 3.0 0.0 2 5
+ 0.890107 3 11 ack 40 ------- 0 3.0 0.0 1 4
- 0.890107 3 11 ack 40 ------- 0 3.0 0.0 1 4
+ 0.890192 3 11 ack 40 ------- 0 3.0 0.0 2 5
- 0.890192 3 11 ack 40 ------- 0 3.0 0.0 2 5
r 0.910116 11 0 ack 40 ------- 0 3.0 0.0 1 4
h 0.910116 0 11 tcp 1040 ------- 0 0.0 3.0 3 6
h 0.910116 0 11 tcp 1040 ------- 0 0.0 3.0 4 7
r 0.910201 11 0 ack 40 ------- 0 3.0 0.0 2 5
h 0.910201 0 11 tcp 1040 ------- 0 0.0 3.0 5 8
h 0.910201 0 11 tcp 1040 ------- 0 0.0 3.0 6 9
+ 0.930116 0 11 tcp 1040 ------- 0 0.0 3.0 3 6
- 0.930116 0 11 tcp 1040 ------- 0 0.0 3.0 3 6
+ 0.930116 0 11 tcp 1040 ------- 0 0.0 3.0 4 7
+ 0.930201 0 11 tcp 1040 ------- 0 0.0 3.0 5 8
+ 0.930201 0 11 tcp 1040 ------- 0 0.0 3.0 6 9
- 0.930201 0 11 tcp 1040 ------- 0 0.0 3.0 4 7
- 0.930286 0 11 tcp 1040 ------- 0 0.0 3.0 5 8
- 0.930372 0 11 tcp 1040 ------- 0 0.0 3.0 6 9
r 0.950204 11 3 tcp 1040 ------- 0 0.0 3.0 3 6
h 0.950204 3 11 ack 40 ------- 0 3.0 0.0 3 10
r 0.950289 11 3 tcp 1040 ------- 0 0.0 3.0 4 7
h 0.950289 3 11 ack 40 ------- 0 3.0 0.0 4 11
r 0.950375 11 3 tcp 1040 ------- 0 0.0 3.0 5 8
h 0.950375 3 11 ack 40 ------- 0 3.0 0.0 5 12
r 0.95046 11 3 tcp 1040 ------- 0 0.0 3.0 6 9
h 0.95046 3 11 ack 40 ------- 0 3.0 0.0 6 13
+ 0.970204 3 11 ack 40 ------- 0 3.0 0.0 3 10
- 0.970204 3 11 ack 40 ------- 0 3.0 0.0 3 10
+ 0.970289 3 11 ack 40 ------- 0 3.0 0.0 4 11
- 0.970289 3 11 ack 40 ------- 0 3.0 0.0 4 11
+ 0.970375 3 11 ack 40 ------- 0 3.0 0.0 5 12
- 0.970375 3 11 ack 40 ------- 0 3.0 0.0 5 12
+ 0.97046 3 11 ack 40 ------- 0 3.0 0.0 6 13
- 0.97046 3 11 ack 40 ------- 0 3.0 0.0 6 13
r 0.990213 11 0 ack 40 ------- 0 3.0 0.0 3 10
h 0.990213 0 11 tcp 1040 ------- 0 0.0 3.0 7 14
h 0.990213 0 11 tcp 1040 ------- 0 0.0 3.0 8 15
r 0.990298 11 0 ack 40 ------- 0 3.0 0.0 4 11
h 0.990298 0 11 tcp 1040 ------- 0 0.0 3.0 9 16
h 0.990298 0 11 tcp 1040 ------- 0 0.0 3.0 10 17
r 0.990384 11 0 ack 40 ------- 0 3.0 0.0 5 12
h 0.990384 0 11 tcp 1040 ------- 0 0.0 3.0 11 18
h 0.990384 0 11 tcp 1040 ------- 0 0.0 3.0 12 19
r 0.990469 11 0 ack 40 ------- 0 3.0 0.0 6 13
h 0.990469 0 11 tcp 1040 ------- 0 0.0 3.0 13 20
h 0.990469 0 11 tcp 1040 ------- 0 0.0 3.0 14 21
+ 1.010213 0 11 tcp 1040 ------- 0 0.0 3.0 7 14
- 1.010213 0 11 tcp 1040 ------- 0 0.0 3.0 7 14
+ 1.010213 0 11 tcp 1040 ------- 0 0.0 3.0 8 15
+ 1.010298 0 11 tcp 1040 ------- 0 0.0 3.0 9 16
+ 1.010298 0 11 tcp 1040 ------- 0 0.0 3.0 10 17
- 1.010298 0 11 tcp 1040 ------- 0 0.0 3.0 8 15
- 1.010384 0 11 tcp 1040 ------- 0 0.0 3.0 9 16
+ 1.010384 0 11 tcp 1040 ------- 0 0.0 3.0 11 18
+ 1.010384 0 11 tcp 1040 ------- 0 0.0 3.0 12 19
- 1.010469 0 11 tcp 1040 ------- 0 0.0 3.0 10 17
+ 1.010469 0 11 tcp 1040 ------- 0 0.0 3.0 13 20
+ 1.010469 0 11 tcp 1040 ------- 0 0.0 3.0 14 21
- 1.010554 0 11 tcp 1040 ------- 0 0.0 3.0 11 18
- 1.01064 0 11 tcp 1040 ------- 0 0.0 3.0 12 19
- 1.010725 0 11 tcp 1040 ------- 0 0.0 3.0 13 20
- 1.01081 0 11 tcp 1040 ------- 0 0.0 3.0 14 21
r 1.030301 11 3 tcp 1040 ------- 0 0.0 3.0 7 14
h 1.030301 3 11 ack 40 ------- 0 3.0 0.0 7 22
r 1.030387 11 3 tcp 1040 ------- 0 0.0 3.0 8 15
h 1.030387 3 11 ack 40 ------- 0 3.0 0.0 8 23
r 1.030472 11 3 tcp 1040 ------- 0 0.0 3.0 9 16
h 1.030472 3 11 ack 40 ------- 0 3.0 0.0 9 24
r 1.030557 11 3 tcp 1040 ------- 0 0.0 3.0 10 17
h 1.030557 3 11 ack 40 ------- 0 3.0 0.0 10 25
r 1.030643 11 3 tcp 1040 ------- 0 0.0 3.0 11 18
h 1.030643 3 11 ack 40 ------- 0 3.0 0.0 11 26
r 1.030728 11 3 tcp 1040 ------- 0 0.0 3.0 12 19
h 1.030728 3 11 ack 40 ------- 0 3.0 0.0 12 27
r 1.030813 11 3 tcp 1040 ------- 0 0.0 3.0 13 20
h 1.030813 3 11 ack 40 ------- 0 3.0 0.0 13 28
r 1.030898 11 3 tcp 1040 ------- 0 0.0 3.0 14 21
h 1.030898 3 11 ack 40 ------- 0 3.0 0.0 14 29
+ 1.050301 3 11 ack 40 ------- 0 3.0 0.0 7 22
- 1.050301 3 11 ack 40 ------- 0 3.0 0.0 7 22
+ 1.050387 3 11 ack 40 ------- 0 3.0 0.0 8 23
- 1.050387 3 11 ack 40 ------- 0 3.0 0.0 8 23
+ 1.050472 3 11 ack 40 ------- 0 3.0 0.0 9 24
- 1.050472 3 11 ack 40 ------- 0 3.0 0.0 9 24
+ 1.050557 3 11 ack 40 ------- 0 3.0 0.0 10 25
- 1.050557 3 11 ack 40 ------- 0 3.0 0.0 10 25
+ 1.050643 3 11 ack 40 ------- 0 3.0 0.0 11 26
- 1.050643 3 11 ack 40 ------- 0 3.0 0.0 11 26
+ 1.050728 3 11 ack 40 ------- 0 3.0 0.0 12 27
- 1.050728 3 11 ack 40 ------- 0 3.0 0.0 12 27
+ 1.050813 3 11 ack 40 ------- 0 3.0 0.0 13 28
- 1.050813 3 11 ack 40 ------- 0 3.0 0.0 13 28
+ 1.050898 3 11 ack 40 ------- 0 3.0 0.0 14 29
- 1.050898 3 11 ack 40 ------- 0 3.0 0.0 14 29
r 1.070311 11 0 ack 40 ------- 0 3.0 0.0 7 22
h 1.070311 0 11 tcp 1040 ------- 0 0.0 3.0 15 30
h 1.070311 0 11 tcp 1040 ------- 0 0.0 3.0 16 31
r 1.070396 11 0 ack 40 ------- 0 3.0 0.0 8 23
h 1.070396 0 11 tcp 1040 ------- 0 0.0 3.0 17 32
h 1.070396 0 11 tcp 1040 ------- 0 0.0 3.0 18 33
r 1.070481 11 0 ack 40 ------- 0 3.0 0.0 9 24
h 1.070481 0 11 tcp 1040 ------- 0 0.0 3.0 19 34
h 1.070481 0 11 tcp 1040 ------- 0 0.0 3.0 20 35
r 1.070566 11 0 ack 40 ------- 0 3.0 0.0 10 25
h 1.070566 0 11 tcp 1040 ------- 0 0.0 3.0 21 36
h 1.070566 0 11 tcp 1040 ------- 0 0.0 3.0 22 37
r 1.070652 11 0 ack 40 ------- 0 3.0 0.0 11 26
h 1.070652 0 11 tcp 1040 ------- 0 0.0 3.0 23 38
h 1.070652 0 11 tcp 1040 ------- 0 0.0 3.0 24 39
r 1.070737 11 0 ack 40 ------- 0 3.0 0.0 12 27
h 1.070737 0 11 tcp 1040 ------- 0 0.0 3.0 25 40
h 1.070737 0 11 tcp 1040 ------- 0 0.0 3.0 26 41
r 1.070822 11 0 ack 40 ------- 0 3.0 0.0 13 28
h 1.070822 0 11 tcp 1040 ------- 0 0.0 3.0 27 42
h 1.070822 0 11 tcp 1040 ------- 0 0.0 3.0 28 43
r 1.070908 11 0 ack 40 ------- 0 3.0 0.0 14 29
h 1.070908 0 11 tcp 1040 ------- 0 0.0 3.0 29 44
h 1.070908 0 11 tcp 1040 ------- 0 0.0 3.0 30 45
+ 1.090311 0 11 tcp 1040 ------- 0 0.0 3.0 15 30
- 1.090311 0 11 tcp 1040 ------- 0 0.0 3.0 15 30
+ 1.090311 0 11 tcp 1040 ------- 0 0.0 3.0 16 31
+ 1.090396 0 11 tcp 1040 ------- 0 0.0 3.0 17 32
+ 1.090396 0 11 tcp 1040 ------- 0 0.0 3.0 18 33
- 1.090396 0 11 tcp 1040 ------- 0 0.0 3.0 16 31
+ 1.090481 0 11 tcp 1040 ------- 0 0.0 3.0 19 34
+ 1.090481 0 11 tcp 1040 ------- 0 0.0 3.0 20 35
- 1.090481 0 11 tcp 1040 ------- 0 0.0 3.0 17 32
+ 1.090566 0 11 tcp 1040 ------- 0 0.0 3.0 21 36
+ 1.090566 0 11 tcp 1040 ------- 0 0.0 3.0 22 37
- 1.090566 0 11 tcp 1040 ------- 0 0.0 3.0 18 33
+ 1.090652 0 11 tcp 1040 ------- 0 0.0 3.0 23 38
+ 1.090652 0 11 tcp 1040 ------- 0 0.0 3.0 24 39
- 1.090652 0 11 tcp 1040 ------- 0 0.0 3.0 19 34
+ 1.090737 0 11 tcp 1040 ------- 0 0.0 3.0 25 40
+ 1.090737 0 11 tcp 1040 ------- 0 0.0 3.0 26 41
- 1.090737 0 11 tcp 1040 ------- 0 0.0 3.0 20 35
+ 1.090822 0 11 tcp 1040 ------- 0 0.0 3.0 27 42
+ 1.090822 0 11 tcp 1040 ------- 0 0.0 3.0 28 43
- 1.090822 0 11 tcp 1040 ------- 0 0.0 3.0 21 36
+ 1.090908 0 11 tcp 1040 ------- 0 0.0 3.0 29 44
+ 1.090908 0 11 tcp 1040 ------- 0 0.0 3.0 30 45
- 1.090908 0 11 tcp 1040 ------- 0 0.0 3.0 22 37
- 1.090993 0 11 tcp 1040 ------- 0 0.0 3.0 23 38
- 1.091078 0 11 tcp 1040 ------- 0 0.0 3.0 24 39
- 1.091163 0 11 tcp 1040 ------- 0 0.0 3.0 25 40
- 1.091249 0 11 tcp 1040 ------- 0 0.0 3.0 26 41
- 1.091334 0 11 tcp 1040 ------- 0 0.0 3.0 27 42
- 1.091419 0 11 tcp 1040 ------- 0 0.0 3.0 28 43
- 1.091504 0 11 tcp 1040 ------- 0 0.0 3.0 29 44
- 1.09159 0 11 tcp 1040 ------- 0 0.0 3.0 30 45
r 1.110399 11 3 tcp 1040 ------- 0 0.0 3.0 15 30
h 1.110399 3 11 ack 40 ------- 0 3.0 0.0 15 46
r 1.110484 11 3 tcp 1040 ------- 0 0.0 3.0 16 31
h 1.110484 3 11 ack 40 ------- 0 3.0 0.0 16 47
r 1.110569 11 3 tcp 1040 ------- 0 0.0 3.0 17 32
h 1.110569 3 11 ack 40 ------- 0 3.0 0.0 17 48
r 1.110655 11 3 tcp 1040 ------- 0 0.0 3.0 18 33
h 1.110655 3 11 ack 40 ------- 0 3.0 0.0 18 49
r 1.11074 11 3 tcp 1040 ------- 0 0.0 3.0 19 34
h 1.11074 3 11 ack 40 ------- 0 3.0 0.0 19 50
r 1.110825 11 3 tcp 1040 ------- 0 0.0 3.0 20 35
h 1.110825 3 11 ack 40 ------- 0 3.0 0.0 20 51
r 1.110911 11 3 tcp 1040 ------- 0 0.0 3.0 21 36
h 1.110911 3 11 ack 40 ------- 0 3.0 0.0 21 52
r 1.110996 11 3 tcp 1040 ------- 0 0.0 3.0 22 37
h 1.110996 3 11 ack 40 ------- 0 3.0 0.0 22 53
r 1.111081 11 3 tcp 1040 ------- 0 0.0 3.0 23 38
h 1.111081 3 11 ack 40 ------- 0 3.0 0.0 23 54
r 1.111166 11 3 tcp 1040 ------- 0 0.0 3.0 24 39
h 1.111166 3 11 ack 40 ------- 0 3.0 0.0 24 55
r 1.111252 11 3 tcp 1040 ------- 0 0.0 3.0 25 40
h 1.111252 3 11 ack 40 ------- 0 3.0 0.0 25 56
r 1.111337 11 3 tcp 1040 ------- 0 0.0 3.0 26 41
h 1.111337 3 11 ack 40 ------- 0 3.0 0.0 26 57
r 1.111422 11 3 tcp 1040 ------- 0 0.0 3.0 27 42
h 1.111422 3 11 ack 40 ------- 0 3.0 0.0 27 58
r 1.111508 11 3 tcp 1040 ------- 0 0.0 3.0 28 43
h 1.111508 3 11 ack 40 ------- 0 3.0 0.0 28 59
r 1.111593 11 3 tcp 1040 ------- 0 0.0 3.0 29 44
h 1.111593 3 11 ack 40 ------- 0 3.0 0.0 29 60
r 1.111678 11 3 tcp 1040 ------- 0 0.0 3.0 30 45
h 1.111678 3 11 ack 40 ------- 0 3.0 0.0 30 61
+ 1.130399 3 11 ack 40 ------- 0 3.0 0.0 15 46
- 1.130399 3 11 ack 40 ------- 0 3.0 0.0 15 46
+ 1.130484 3 11 ack 40 ------- 0 3.0 0.0 16 47
- 1.130484 3 11 ack 40 ------- 0 3.0 0.0 16 47
+ 1.130569 3 11 ack 40 ------- 0 3.0 0.0 17 48
- 1.130569 3 11 ack 40 ------- 0 3.0 0.0 17 48
+ 1.130655 3 11 ack 40 ------- 0 3.0 0.0 18 49
- 1.130655 3 11 ack 40 ------- 0 3.0 0.0 18 49
+ 1.13074 3 11 ack 40 ------- 0 3.0 0.0 19 50
- 1.13074 3 11 ack 40 ------- 0 3.0 0.0 19 50
+ 1.130825 3 11 ack 40 ------- 0 3.0 0.0 20 51
- 1.130825 3 11 ack 40 ------- 0 3.0 0.0 20 51
+ 1.130911 3 11 ack 40 ------- 0 3.0 0.0 21 52
- 1.130911 3 11 ack 40 ------- 0 3.0 0.0 21 52
+ 1.130996 3 11 ack 40 ------- 0 3.0 0.0 22 53
- 1.130996 3 11 ack 40 ------- 0 3.0 0.0 22 53
+ 1.131081 3 11 ack 40 ------- 0 3.0 0.0 23 54
- 1.131081 3 11 ack 40 ------- 0 3.0 0.0 23 54
+ 1.131166 3 11 ack 40 ------- 0 3.0 0.0 24 55
- 1.131166 3 11 ack 40 ------- 0 3.0 0.0 24 55
+ 1.131252 3 11 ack 40 ------- 0 3.0 0.0 25 56
- 1.131252 3 11 ack 40 ------- 0 3.0 0.0 25 56
+ 1.131337 3 11 ack 40 ------- 0 3.0 0.0 26 57
- 1.131337 3 11 ack 40 ------- 0 3.0 0.0 26 57
+ 1.131422 3 11 ack 40 ------- 0 3.0 0.0 27 58
- 1.131422 3 11 ack 40 ------- 0 3.0 0.0 27 58
+ 1.131508 3 11 ack 40 ------- 0 3.0 0.0 28 59
- 1.131508 3 11 ack 40 ------- 0 3.0 0.0 28 59
+ 1.131593 3 11 ack 40 ------- 0 3.0 0.0 29 60
- 1.131593 3 11 ack 40 ------- 0 3.0 0.0 29 60
+ 1.131678 3 11 ack 40 ------- 0 3.0 0.0 30 61
- 1.131678 3 11 ack 40 ------- 0 3.0 0.0 30 61
r 1.150408 11 0 ack 40 ------- 0 3.0 0.0 15 46
h 1.150408 0 11 tcp 1040 ------- 0 0.0 3.0 31 62
h 1.150408 0 11 tcp 1040 ------- 0 0.0 3.0 32 63
r 1.150493 11 0 ack 40 ------- 0 3.0 0.0 16 47
h 1.150493 0 11 tcp 1040 ------- 0 0.0 3.0 33 64
h 1.150493 0 11 tcp 1040 ------- 0 0.0 3.0 34 65
r 1.150579 11 0 ack 40 ------- 0 3.0 0.0 17 48
h 1.150579 0 11 tcp 1040 ------- 0 0.0 3.0 35 66
h 1.150579 0 11 tcp 1040 ------- 0 0.0 3.0 36 67
r 1.150664 11 0 ack 40 ------- 0 3.0 0.0 18 49
h 1.150664 0 11 tcp 1040 ------- 0 0.0 3.0 37 68
h 1.150664 0 11 tcp 1040 ------- 0 0.0 3.0 38 69
r 1.150749 11 0 ack 40 ------- 0 3.0 0.0 19 50
h 1.150749 0 11 tcp 1040 ------- 0 0.0 3.0 39 70
r 1.150834 11 0 ack 40 ------- 0 3.0 0.0 20 51
h 1.150834 0 11 tcp 1040 ------- 0 0.0 3.0 40 71
r 1.15092 11 0 ack 40 ------- 0 3.0 0.0 21 52
h 1.15092 0 11 tcp 1040 ------- 0 0.0 3.0 41 72
r 1.151005 11 0 ack 40 ------- 0 3.0 0.0 22 53
h 1.151005 0 11 tcp 1040 ------- 0 0.0 3.0 42 73
r 1.15109 11 0 ack 40 ------- 0 3.0 0.0 23 54
h 1.15109 0 11 tcp 1040 ------- 0 0.0 3.0 43 74
r 1.151176 11 0 ack 40 ------- 0 3.0 0.0 24 55
h 1.151176 0 11 tcp 1040 ------- 0 0.0 3.0 44 75
r 1.151261 11 0 ack 40 ------- 0 3.0 0.0 25 56
h 1.151261 0 11 tcp 1040 ------- 0 0.0 3.0 45 76
r 1.151346 11 0 ack 40 ------- 0 3.0 0.0 26 57
h 1.151346 0 11 tcp 1040 ------- 0 0.0 3.0 46 77
r 1.151431 11 0 ack 40 ------- 0 3.0 0.0 27 58
h 1.151431 0 11 tcp 1040 ------- 0 0.0 3.0 47 78
r 1.151517 11 0 ack 40 ------- 0 3.0 0.0 28 59
h 1.151517 0 11 tcp 1040 ------- 0 0.0 3.0 48 79
r 1.151602 11 0 ack 40 ------- 0 3.0 0.0 29 60
h 1.151602 0 11 tcp 1040 ------- 0 0.0 3.0 49 80
r 1.151687 11 0 ack 40 ------- 0 3.0 0.0 30 61
h 1.151687 0 11 tcp 1040 ------- 0 0.0 3.0 50 81
+ 1.170408 0 11 tcp 1040 ------- 0 0.0 3.0 31 62
- 1.170408 0 11 tcp 1040 ------- 0 0.0 3.0 31 62
+ 1.170408 0 11 tcp 1040 ------- 0 0.0 3.0 32 63
+ 1.170493 0 11 tcp 1040 ------- 0 0.0 3.0 33 64
+ 1.170493 0 11 tcp 1040 ------- 0 0.0 3.0 34 65
- 1.170493 0 11 tcp 1040 ------- 0 0.0 3.0 32 63
+ 1.170579 0 11 tcp 1040 ------- 0 0.0 3.0 35 66
+ 1.170579 0 11 tcp 1040 ------- 0 0.0 3.0 36 67
- 1.170579 0 11 tcp 1040 ------- 0 0.0 3.0 33 64
+ 1.170664 0 11 tcp 1040 ------- 0 0.0 3.0 37 68
+ 1.170664 0 11 tcp 1040 ------- 0 0.0 3.0 38 69
- 1.170664 0 11 tcp 1040 ------- 0 0.0 3.0 34 65
+ 1.170749 0 11 tcp 1040 ------- 0 0.0 3.0 39 70
- 1.170749 0 11 tcp 1040 ------- 0 0.0 3.0 35 66
+ 1.170834 0 11 tcp 1040 ------- 0 0.0 3.0 40 71
- 1.170834 0 11 tcp 1040 ------- 0 0.0 3.0 36 67
+ 1.17092 0 11 tcp 1040 ------- 0 0.0 3.0 41 72
- 1.17092 0 11 tcp 1040 ------- 0 0.0 3.0 37 68
+ 1.171005 0 11 tcp 1040 ------- 0 0.0 3.0 42 73
- 1.171005 0 11 tcp 1040 ------- 0 0.0 3.0 38 69
+ 1.17109 0 11 tcp 1040 ------- 0 0.0 3.0 43 74
- 1.17109 0 11 tcp 1040 ------- 0 0.0 3.0 39 70
+ 1.171176 0 11 tcp 1040 ------- 0 0.0 3.0 44 75
- 1.171176 0 11 tcp 1040 ------- 0 0.0 3.0 40 71
+ 1.171261 0 11 tcp 1040 ------- 0 0.0 3.0 45 76
- 1.171261 0 11 tcp 1040 ------- 0 0.0 3.0 41 72
+ 1.171346 0 11 tcp 1040 ------- 0 0.0 3.0 46 77
- 1.171346 0 11 tcp 1040 ------- 0 0.0 3.0 42 73
+ 1.171431 0 11 tcp 1040 ------- 0 0.0 3.0 47 78
- 1.171431 0 11 tcp 1040 ------- 0 0.0 3.0 43 74
+ 1.171517 0 11 tcp 1040 ------- 0 0.0 3.0 48 79
- 1.171517 0 11 tcp 1040 ------- 0 0.0 3.0 44 75
+ 1.171602 0 11 tcp 1040 ------- 0 0.0 3.0 49 80
- 1.171602 0 11 tcp 1040 ------- 0 0.0 3.0 45 76
+ 1.171687 0 11 tcp 1040 ------- 0 0.0 3.0 50 81
- 1.171687 0 11 tcp 1040 ------- 0 0.0 3.0 46 77
- 1.171772 0 11 tcp 1040 ------- 0 0.0 3.0 47 78
- 1.171858 0 11 tcp 1040 ------- 0 0.0 3.0 48 79
- 1.171943 0 11 tcp 1040 ------- 0 0.0 3.0 49 80
- 1.172028 0 11 tcp 1040 ------- 0 0.0 3.0 50 81
r 1.190496 11 3 tcp 1040 ------- 0 0.0 3.0 31 62
h 1.190496 3 11 ack 40 ------- 0 3.0 0.0 31 82
r 1.190582 11 3 tcp 1040 ------- 0 0.0 3.0 32 63
h 1.190582 3 11 ack 40 ------- 0 3.0 0.0 32 83
r 1.190667 11 3 tcp 1040 ------- 0 0.0 3.0 33 64
h 1.190667 3 11 ack 40 ------- 0 3.0 0.0 33 84
r 1.190752 11 3 tcp 1040 ------- 0 0.0 3.0 34 65
h 1.190752 3 11 ack 40 ------- 0 3.0 0.0 34 85
r 1.190837 11 3 tcp 1040 ------- 0 0.0 3.0 35 66
h 1.190837 3 11 ack 40 ------- 0 3.0 0.0 35 86
r 1.190923 11 3 tcp 1040 ------- 0 0.0 3.0 36 67
h 1.190923 3 11 ack 40 ------- 0 3.0 0.0 36 87
r 1.191008 11 3 tcp 1040 ------- 0 0.0 3.0 37 68
h 1.191008 3 11 ack 40 ------- 0 3.0 0.0 37 88
r 1.191093 11 3 tcp 1040 ------- 0 0.0 3.0 38 69
h 1.191093 3 11 ack 40 ------- 0 3.0 0.0 38 89
r 1.191179 11 3 tcp 1040 ------- 0 0.0 3.0 39 70
h 1.191179 3 11 ack 40 ------- 0 3.0 0.0 39 90
r 1.191264 11 3 tcp 1040 ------- 0 0.0 3.0 40 71
h 1.191264 3 11 ack 40 ------- 0 3.0 0.0 40 91
r 1.191349 11 3 tcp 1040 ------- 0 0.0 3.0 41 72
h 1.191349 3 11 ack 40 ------- 0 3.0 0.0 41 92
r 1.191434 11 3 tcp 1040 ------- 0 0.0 3.0 42 73
h 1.191434 3 11 ack 40 ------- 0 3.0 0.0 42 93
r 1.19152 11 3 tcp 1040 ------- 0 0.0 3.0 43 74
h 1.19152 3 11 ack 40 ------- 0 3.0 0.0 43 94
r 1.191605 11 3 tcp 1040 ------- 0 0.0 3.0 44 75
h 1.191605 3 11 ack 40 ------- 0 3.0 0.0 44 95
r 1.19169 11 3 tcp 1040 ------- 0 0.0 3.0 45 76
h 1.19169 3 11 ack 40 ------- 0 3.0 0.0 45 96
r 1.191776 11 3 tcp 1040 ------- 0 0.0 3.0 46 77
h 1.191776 3 11 ack 40 ------- 0 3.0 0.0 46 97
r 1.191861 11 3 tcp 1040 ------- 0 0.0 3.0 47 78
h 1.191861 3 11 ack 40 ------- 0 3.0 0.0 47 98
r 1.191946 11 3 tcp 1040 ------- 0 0.0 3.0 48 79
h 1.191946 3 11 ack 40 ------- 0 3.0 0.0 48 99
r 1.192031 11 3 tcp 1040 ------- 0 0.0 3.0 49 80
h 1.192031 3 11 ack 40 ------- 0 3.0 0.0 49 100
r 1.192117 11 3 tcp 1040 ------- 0 0.0 3.0 50 81
h 1.192117 3 11 ack 40 ------- 0 3.0 0.0 50 101
+ 1.210496 3 11 ack 40 ------- 0 3.0 0.0 31 82
- 1.210496 3 11 ack 40 ------- 0 3.0 0.0 31 82
+ 1.210582 3 11 ack 40 ------- 0 3.0 0.0 32 83
- 1.210582 3 11 ack 40 ------- 0 3.0 0.0 32 83
+ 1.210667 3 11 ack 40 ------- 0 3.0 0.0 33 84
- 1.210667 3 11 ack 40 ------- 0 3.0 0.0 33 84
+ 1.210752 3 11 ack 40 ------- 0 3.0 0.0 34 85
- 1.210752 3 11 ack 40 ------- 0 3.0 0.0 34 85
+ 1.210837 3 11 ack 40 ------- 0 3.0 0.0 35 86
- 1.210837 3 11 ack 40 ------- 0 3.0 0.0 35 86
+ 1.210923 3 11 ack 40 ------- 0 3.0 0.0 36 87
- 1.210923 3 11 ack 40 ------- 0 3.0 0.0 36 87
+ 1.211008 3 11 ack 40 ------- 0 3.0 0.0 37 88
- 1.211008 3 11 ack 40 ------- 0 3.0 0.0 37 88
+ 1.211093 3 11 ack 40 ------- 0 3.0 0.0 38 89
- 1.211093 3 11 ack 40 ------- 0 3.0 0.0 38 89
+ 1.211179 3 11 ack 40 ------- 0 3.0 0.0 39 90
- 1.211179 3 11 ack 40 ------- 0 3.0 0.0 39 90
+ 1.211264 3 11 ack 40 ------- 0 3.0 0.0 40 91
- 1.211264 3 11 ack 40 ------- 0 3.0 0.0 40 91
+ 1.211349 3 11 ack 40 ------- 0 3.0 0.0 41 92
- 1.211349 3 11 ack 40 ------- 0 3.0 0.0 41 92
+ 1.211434 3 11 ack 40 ------- 0 3.0 0.0 42 93
- 1.211434 3 11 ack 40 ------- 0 3.0 0.0 42 93
+ 1.21152 3 11 ack 40 ------- 0 3.0 0.0 43 94
- 1.21152 3 11 ack 40 ------- 0 3.0 0.0 43 94
+ 1.211605 3 11 ack 40 ------- 0 3.0 0.0 44 95
- 1.211605 3 11 ack 40 ------- 0 3.0 0.0 44 95
+ 1.21169 3 11 ack 40 ------- 0 3.0 0.0 45 96
- 1.21169 3 11 ack 40 ------- 0 3.0 0.0 45 96
+ 1.211776 3 11 ack 40 ------- 0 3.0 0.0 46 97
- 1.211776 3 11 ack 40 ------- 0 3.0 0.0 46 97
+ 1.211861 3 11 ack 40 ------- 0 3.0 0.0 47 98
- 1.211861 3 11 ack 40 ------- 0 3.0 0.0 47 98
+ 1.211946 3 11 ack 40 ------- 0 3.0 0.0 48 99
- 1.211946 3 11 ack 40 ------- 0 3.0 0.0 48 99
+ 1.212031 3 11 ack 40 ------- 0 3.0 0.0 49 100
- 1.212031 3 11 ack 40 ------- 0 3.0 0.0 49 100
+ 1.212117 3 11 ack 40 ------- 0 3.0 0.0 50 101
- 1.212117 3 11 ack 40 ------- 0 3.0 0.0 50 101
r 1.230505 11 0 ack 40 ------- 0 3.0 0.0 31 82
h 1.230505 0 11 tcp 1040 ------- 0 0.0 3.0 51 102
r 1.230591 11 0 ack 40 ------- 0 3.0 0.0 32 83
h 1.230591 0 11 tcp 1040 ------- 0 0.0 3.0 52 103
r 1.230676 11 0 ack 40 ------- 0 3.0 0.0 33 84
h 1.230676 0 11 tcp 1040 ------- 0 0.0 3.0 53 104
r 1.230761 11 0 ack 40 ------- 0 3.0 0.0 34 85
h 1.230761 0 11 tcp 1040 ------- 0 0.0 3.0 54 105
r 1.230847 11 0 ack 40 ------- 0 3.0 0.0 35 86
h 1.230847 0 11 tcp 1040 ------- 0 0.0 3.0 55 106
r 1.230932 11 0 ack 40 ------- 0 3.0 0.0 36 87
h 1.230932 0 11 tcp 1040 ------- 0 0.0 3.0 56 107
r 1.231017 11 0 ack 40 ------- 0 3.0 0.0 37 88
h 1.231017 0 11 tcp 1040 ------- 0 0.0 3.0 57 108
r 1.231102 11 0 ack 40 ------- 0 3.0 0.0 38 89
h 1.231102 0 11 tcp 1040 ------- 0 0.0 3.0 58 109
r 1.231188 11 0 ack 40 ------- 0 3.0 0.0 39 90
h 1.231188 0 11 tcp 1040 ------- 0 0.0 3.0 59 110
r 1.231273 11 0 ack 40 ------- 0 3.0 0.0 40 91
h 1.231273 0 11 tcp 1040 ------- 0 0.0 3.0 60 111
r 1.231358 11 0 ack 40 ------- 0 3.0 0.0 41 92
h 1.231358 0 11 tcp 1040 ------- 0 0.0 3.0 61 112
r 1.231444 11 0 ack 40 ------- 0 3.0 0.0 42 93
h 1.231444 0 11 tcp 1040 ------- 0 0.0 3.0 62 113
r 1.231529 11 0 ack 40 ------- 0 3.0 0.0 43 94
h 1.231529 0 11 tcp 1040 ------- 0 0.0 3.0 63 114
r 1.231614 11 0 ack 40 ------- 0 3.0 0.0 44 95
h 1.231614 0 11 tcp 1040 ------- 0 0.0 3.0 64 115
r 1.231699 11 0 ack 40 ------- 0 3.0 0.0 45 96
h 1.231699 0 11 tcp 1040 ------- 0 0.0 3.0 65 116
r 1.231785 11 0 ack 40 ------- 0 3.0 0.0 46 97
h 1.231785 0 11 tcp 1040 ------- 0 0.0 3.0 66 117
r 1.23187 11 0 ack 40 ------- 0 3.0 0.0 47 98
h 1.23187 0 11 tcp 1040 ------- 0 0.0 3.0 67 118
r 1.231955 11 0 ack 40 ------- 0 3.0 0.0 48 99
h 1.231955 0 11 tcp 1040 ------- 0 0.0 3.0 68 119
r 1.23204 11 0 ack 40 ------- 0 3.0 0.0 49 100
h 1.23204 0 11 tcp 1040 ------- 0 0.0 3.0 69 120
r 1.232126 11 0 ack 40 ------- 0 3.0 0.0 50 101
h 1.232126 0 11 tcp 1040 ------- 0 0.0 3.0 70 121
+ 1.250505 0 11 tcp 1040 ------- 0 0.0 3.0 51 102
- 1.250505 0 11 tcp 1040 ------- 0 0.0 3.0 51 102
+ 1.250591 0 11 tcp 1040 ------- 0 0.0 3.0 52 103
- 1.250591 0 11 tcp 1040 ------- 0 0.0 3.0 52 103
+ 1.250676 0 11 tcp 1040 ------- 0 0.0 3.0 53 104
- 1.250676 0 11 tcp 1040 ------- 0 0.0 3.0 53 104
+ 1.250761 0 11 tcp 1040 ------- 0 0.0 3.0 54 105
- 1.250761 0 11 tcp 1040 ------- 0 0.0 3.0 54 105
+ 1.250847 0 11 tcp 1040 ------- 0 0.0 3.0 55 106
- 1.250847 0 11 tcp 1040 ------- 0 0.0 3.0 55 106
+ 1.250932 0 11 tcp 1040 ------- 0 0.0 3.0 56 107
- 1.250932 0 11 tcp 1040 ------- 0 0.0 3.0 56 107
+ 1.251017 0 11 tcp 1040 ------- 0 0.0 3.0 57 108
- 1.251017 0 11 tcp 1040 ------- 0 0.0 3.0 57 108
+ 1.251102 0 11 tcp 1040 ------- 0 0.0 3.0 58 109
- 1.251102 0 11 tcp 1040 ------- 0 0.0 3.0 58 109
+ 1.251188 0 11 tcp 1040 ------- 0 0.0 3.0 59 110
- 1.251188 0 11 tcp 1040 ------- 0 0.0 3.0 59 110
+ 1.251273 0 11 tcp 1040 ------- 0 0.0 3.0 60 111
- 1.251273 0 11 tcp 1040 ------- 0 0.0 3.0 60 111
+ 1.251358 0 11 tcp 1040 ------- 0 0.0 3.0 61 112
- 1.251358 0 11 tcp 1040 ------- 0 0.0 3.0 61 112
+ 1.251444 0 11 tcp 1040 ------- 0 0.0 3.0 62 113
- 1.251444 0 11 tcp 1040 ------- 0 0.0 3.0 62 113
+ 1.251529 0 11 tcp 1040 ------- 0 0.0 3.0 63 114
- 1.251529 0 11 tcp 1040 ------- 0 0.0 3.0 63 114
+ 1.251614 0 11 tcp 1040 ------- 0 0.0 3.0 64 115
- 1.251614 0 11 tcp 1040 ------- 0 0.0 3.0 64 115
+ 1.251699 0 11 tcp 1040 ------- 0 0.0 3.0 65 116
- 1.251699 0 11 tcp 1040 ------- 0 0.0 3.0 65 116
+ 1.251785 0 11 tcp 1040 ------- 0 0.0 3.0 66 117
- 1.251785 0 11 tcp 1040 ------- 0 0.0 3.0 66 117
+ 1.25187 0 11 tcp 1040 ------- 0 0.0 3.0 67 118
- 1.25187 0 11 tcp 1040 ------- 0 0.0 3.0 67 118
+ 1.251955 0 11 tcp 1040 ------- 0 0.0 3.0 68 119
- 1.251955 0 11 tcp 1040 ------- 0 0.0 3.0 68 119
+ 1.25204 0 11 tcp 1040 ------- 0 0.0 3.0 69 120
- 1.25204 0 11 tcp 1040 ------- 0 0.0 3.0 69 120
+ 1.252126 0 11 tcp 1040 ------- 0 0.0 3.0 70 121
- 1.252126 0 11 tcp 1040 ------- 0 0.0 3.0 70 121
r 1.270594 11 3 tcp 1040 ------- 0 0.0 3.0 51 102
h 1.270594 3 11 ack 40 ------- 0 3.0 0.0 51 122
r 1.270679 11 3 tcp 1040 ------- 0 0.0 3.0 52 103
h 1.270679 3 11 ack 40 ------- 0 3.0 0.0 52 123
r 1.270764 11 3 tcp 1040 ------- 0 0.0 3.0 53 104
h 1.270764 3 11 ack 40 ------- 0 3.0 0.0 53 124
r 1.27085 11 3 tcp 1040 ------- 0 0.0 3.0 54 105
h 1.27085 3 11 ack 40 ------- 0 3.0 0.0 54 125
r 1.270935 11 3 tcp 1040 ------- 0 0.0 3.0 55 106
h 1.270935 3 11 ack 40 ------- 0 3.0 0.0 55 126
r 1.27102 11 3 tcp 1040 ------- 0 0.0 3.0 56 107
h 1.27102 3 11 ack 40 ------- 0 3.0 0.0 56 127
r 1.271105 11 3 tcp 1040 ------- 0 0.0 3.0 57 108
h 1.271105 3 11 ack 40 ------- 0 3.0 0.0 57 128
r 1.271191 11 3 tcp 1040 ------- 0 0.0 3.0 58 109
h 1.271191 3 11 ack 40 ------- 0 3.0 0.0 58 129
r 1.271276 11 3 tcp 1040 ------- 0 0.0 3.0 59 110
h 1.271276 3 11 ack 40 ------- 0 3.0 0.0 59 130
r 1.271361 11 3 tcp 1040 ------- 0 0.0 3.0 60 111
h 1.271361 3 11 ack 40 ------- 0 3.0 0.0 60 131
r 1.271447 11 3 tcp 1040 ------- 0 0.0 3.0 61 112
h 1.271447 3 11 ack 40 ------- 0 3.0 0.0 61 132
r 1.271532 11 3 tcp 1040 ------- 0 0.0 3.0 62 113
h 1.271532 3 11 ack 40 ------- 0 3.0 0.0 62 133
r 1.271617 11 3 tcp 1040 ------- 0 0.0 3.0 63 114
h 1.271617 3 11 ack 40 ------- 0 3.0 0.0 63 134
r 1.271702 11 3 tcp 1040 ------- 0 0.0 3.0 64 115
h 1.271702 3 11 ack 40 ------- 0 3.0 0.0 64 135
r 1.271788 11 3 tcp 1040 ------- 0 0.0 3.0 65 116
h 1.271788 3 11 ack 40 ------- 0 3.0 0.0 65 136
r 1.271873 11 3 tcp 1040 ------- 0 0.0 3.0 66 117
h 1.271873 3 11 ack 40 ------- 0 3.0 0.0 66 137
r 1.271958 11 3 tcp 1040 ------- 0 0.0 3.0 67 118
h 1.271958 3 11 ack 40 ------- 0 3.0 0.0 67 138
r 1.272044 11 3 tcp 1040 ------- 0 0.0 3.0 68 119
h 1.272044 3 11 ack 40 ------- 0 3.0 0.0 68 139
r 1.272129 11 3 tcp 1040 ------- 0 0.0 3.0 69 120
h 1.272129 3 11 ack 40 ------- 0 3.0 0.0 69 140
r 1.272214 11 3 tcp 1040 ------- 0 0.0 3.0 70 121
h 1.272214 3 11 ack 40 ------- 0 3.0 0.0 70 141
+ 1.290594 3 11 ack 40 ------- 0 3.0 0.0 51 122
- 1.290594 3 11 ack 40 ------- 0 3.0 0.0 51 122
+ 1.290679 3 11 ack 40 ------- 0 3.0 0.0 52 123
- 1.290679 3 11 ack 40 ------- 0 3.0 0.0 52 123
+ 1.290764 3 11 ack 40 ------- 0 3.0 0.0 53 124
- 1.290764 3 11 ack 40 ------- 0 3.0 0.0 53 124
+ 1.29085 3 11 ack 40 ------- 0 3.0 0.0 54 125
- 1.29085 3 11 ack 40 ------- 0 3.0 0.0 54 125
+ 1.290935 3 11 ack 40 ------- 0 3.0 0.0 55 126
- 1.290935 3 11 ack 40 ------- 0 3.0 0.0 55 126
+ 1.29102 3 11 ack 40 ------- 0 3.0 0.0 56 127
- 1.29102 3 11 ack 40 ------- 0 3.0 0.0 56 127
+ 1.291105 3 11 ack 40 ------- 0 3.0 0.0 57 128
- 1.291105 3 11 ack 40 ------- 0 3.0 0.0 57 128
+ 1.291191 3 11 ack 40 ------- 0 3.0 0.0 58 129
- 1.291191 3 11 ack 40 ------- 0 3.0 0.0 58 129
+ 1.291276 3 11 ack 40 ------- 0 3.0 0.0 59 130
- 1.291276 3 11 ack 40 ------- 0 3.0 0.0 59 130
+ 1.291361 3 11 ack 40 ------- 0 3.0 0.0 60 131
- 1.291361 3 11 ack 40 ------- 0 3.0 0.0 60 131
+ 1.291447 3 11 ack 40 ------- 0 3.0 0.0 61 132
- 1.291447 3 11 ack 40 ------- 0 3.0 0.0 61 132
+ 1.291532 3 11 ack 40 ------- 0 3.0 0.0 62 133
- 1.291532 3 11 ack 40 ------- 0 3.0 0.0 62 133
+ 1.291617 3 11 ack 40 ------- 0 3.0 0.0 63 134
- 1.291617 3 11 ack 40 ------- 0 3.0 0.0 63 134
+ 1.291702 3 11 ack 40 ------- 0 3.0 0.0 64 135
- 1.291702 3 11 ack 40 ------- 0 3.0 0.0 64 135
+ 1.291788 3 11 ack 40 ------- 0 3.0 0.0 65 136
- 1.291788 3 11 ack 40 ------- 0 3.0 0.0 65 136
+ 1.291873 3 11 ack 40 ------- 0 3.0 0.0 66 137
- 1.291873 3 11 ack 40 ------- 0 3.0 0.0 66 137
+ 1.291958 3 11 ack 40 ------- 0 3.0 0.0 67 138
- 1.291958 3 11 ack 40 ------- 0 3.0 0.0 67 138
+ 1.292044 3 11 ack 40 ------- 0 3.0 0.0 68 139
- 1.292044 3 11 ack 40 ------- 0 3.0 0.0 68 139
+ 1.292129 3 11 ack 40 ------- 0 3.0 0.0 69 140
- 1.292129 3 11 ack 40 ------- 0 3.0 0.0 69 140
+ 1.292214 3 11 ack 40 ------- 0 3.0 0.0 70 141
- 1.292214 3 11 ack 40 ------- 0 3.0 0.0 70 141
r 1.310603 11 0 ack 40 ------- 0 3.0 0.0 51 122
h 1.310603 0 11 tcp 1040 ------- 0 0.0 3.0 71 142
r 1.310688 11 0 ack 40 ------- 0 3.0 0.0 52 123
h 1.310688 0 11 tcp 1040 ------- 0 0.0 3.0 72 143
r 1.310773 11 0 ack 40 ------- 0 3.0 0.0 53 124
h 1.310773 0 11 tcp 1040 ------- 0 0.0 3.0 73 144
r 1.310859 11 0 ack 40 ------- 0 3.0 0.0 54 125
h 1.310859 0 11 tcp 1040 ------- 0 0.0 3.0 74 145
r 1.310944 11 0 ack 40 ------- 0 3.0 0.0 55 126
h 1.310944 0 11 tcp 1040 ------- 0 0.0 3.0 75 146
r 1.311029 11 0 ack 40 ------- 0 3.0 0.0 56 127
h 1.311029 0 11 tcp 1040 ------- 0 0.0 3.0 76 147
r 1.311115 11 0 ack 40 ------- 0 3.0 0.0 57 128
h 1.311115 0 11 tcp 1040 ------- 0 0.0 3.0 77 148
r 1.3112 11 0 ack 40 ------- 0 3.0 0.0 58 129
h 1.3112 0 11 tcp 1040 ------- 0 0.0 3.0 78 149
r 1.311285 11 0 ack 40 ------- 0 3.0 0.0 59 130
h 1.311285 0 11 tcp 1040 ------- 0 0.0 3.0 79 150
r 1.31137 11 0 ack 40 ------- 0 3.0 0.0 60 131
h 1.31137 0 11 tcp 1040 ------- 0 0.0 3.0 80 151
r 1.311456 11 0 ack 40 ------- 0 3.0 0.0 61 132
h 1.311456 0 11 tcp 1040 ------- 0 0.0 3.0 81 152
r 1.311541 11 0 ack 40 ------- 0 3.0 0.0 62 133
h 1.311541 0 11 tcp 1040 ------- 0 0.0 3.0 82 153
r 1.311626 11 0 ack 40 ------- 0 3.0 0.0 63 134
h 1.311626 0 11 tcp 1040 ------- 0 0.0 3.0 83 154
r 1.311712 11 0 ack 40 ------- 0 3.0 0.0 64 135
h 1.311712 0 11 tcp 1040 ------- 0 0.0 3.0 84 155
r 1.311797 11 0 ack 40 ------- 0 3.0 0.0 65 136
h 1.311797 0 11 tcp 1040 ------- 0 0.0 3.0 85 156
r 1.311882 11 0 ack 40 ------- 0 3.0 0.0 66 137
h 1.311882 0 11 tcp 1040 ------- 0 0.0 3.0 86 157
r 1.311967 11 0 ack 40 ------- 0 3.0 0.0 67 138
h 1.311967 0 11 tcp 1040 ------- 0 0.0 3.0 87 158
r 1.312053 11 0 ack 40 ------- 0 3.0 0.0 68 139
h 1.312053 0 11 tcp 1040 ------- 0 0.0 3.0 88 159
r 1.312138 11 0 ack 40 ------- 0 3.0 0.0 69 140
h 1.312138 0 11 tcp 1040 ------- 0 0.0 3.0 89 160
r 1.312223 11 0 ack 40 ------- 0 3.0 0.0 70 141
h 1.312223 0 11 tcp 1040 ------- 0 0.0 3.0 90 161
+ 1.330603 0 11 tcp 1040 ------- 0 0.0 3.0 71 142
- 1.330603 0 11 tcp 1040 ------- 0 0.0 3.0 71 142
+ 1.330688 0 11 tcp 1040 ------- 0 0.0 3.0 72 143
- 1.330688 0 11 tcp 1040 ------- 0 0.0 3.0 72 143
+ 1.330773 0 11 tcp 1040 ------- 0 0.0 3.0 73 144
- 1.330773 0 11 tcp 1040 ------- 0 0.0 3.0 73 144
+ 1.330859 0 11 tcp 1040 ------- 0 0.0 3.0 74 145
- 1.330859 0 11 tcp 1040 ------- 0 0.0 3.0 74 145
+ 1.330944 0 11 tcp 1040 ------- 0 0.0 3.0 75 146
- 1.330944 0 11 tcp 1040 ------- 0 0.0 3.0 75 146
+ 1.331029 0 11 tcp 1040 ------- 0 0.0 3.0 76 147
- 1.331029 0 11 tcp 1040 ------- 0 0.0 3.0 76 147
+ 1.331115 0 11 tcp 1040 ------- 0 0.0 3.0 77 148
- 1.331115 0 11 tcp 1040 ------- 0 0.0 3.0 77 148
+ 1.3312 0 11 tcp 1040 ------- 0 0.0 3.0 78 149
- 1.3312 0 11 tcp 1040 ------- 0 0.0 3.0 78 149
+ 1.331285 0 11 tcp 1040 ------- 0 0.0 3.0 79 150
- 1.331285 0 11 tcp 1040 ------- 0 0.0 3.0 79 150
+ 1.33137 0 11 tcp 1040 ------- 0 0.0 3.0 80 151
- 1.33137 0 11 tcp 1040 ------- 0 0.0 3.0 80 151
+ 1.331456 0 11 tcp 1040 ------- 0 0.0 3.0 81 152
- 1.331456 0 11 tcp 1040 ------- 0 0.0 3.0 81 152
+ 1.331541 0 11 tcp 1040 ------- 0 0.0 3.0 82 153
- 1.331541 0 11 tcp 1040 ------- 0 0.0 3.0 82 153
+ 1.331626 0 11 tcp 1040 ------- 0 0.0 3.0 83 154
- 1.331626 0 11 tcp 1040 ------- 0 0.0 3.0 83 154
+ 1.331712 0 11 tcp 1040 ------- 0 0.0 3.0 84 155
- 1.331712 0 11 tcp 1040 ------- 0 0.0 3.0 84 155
+ 1.331797 0 11 tcp 1040 ------- 0 0.0 3.0 85 156
- 1.331797 0 11 tcp 1040 ------- 0 0.0 3.0 85 156
+ 1.331882 0 11 tcp 1040 ------- 0 0.0 3.0 86 157
- 1.331882 0 11 tcp 1040 ------- 0 0.0 3.0 86 157
+ 1.331967 0 11 tcp 1040 ------- 0 0.0 3.0 87 158
- 1.331967 0 11 tcp 1040 ------- 0 0.0 3.0 87 158
+ 1.332053 0 11 tcp 1040 ------- 0 0.0 3.0 88 159