h 0.1 0 7 tcp 40 ------- 0 0.0 5.0 0 0
+ 0.14 0 7 tcp 40 ------- 0 0.0 5.0 0 0
- 0.14 0 7 tcp 40 ------- 0 0.0 5.0 0 0
r 0.182564 7 5 tcp 40 ------- 0 0.0 5.0 0 0
h 0.182564 5 7 ack 40 ------- 0 5.0 0.0 0 1
+ 0.222564 5 7 ack 40 ------- 0 5.0 0.0 0 1
- 0.222564 5 7 ack 40 ------- 0 5.0 0.0 0 1
r 0.265128 7 0 ack 40 ------- 0 5.0 0.0 0 1
h 0.265128 0 7 tcp 1040 ------- 0 0.0 5.0 1 2
h 0.265128 0 7 tcp 1040 ------- 0 0.0 5.0 2 3
+ 0.305128 0 7 tcp 1040 ------- 0 0.0 5.0 1 2
- 0.305128 0 7 tcp 1040 ------- 0 0.0 5.0 1 2
+ 0.305128 0 7 tcp 1040 ------- 0 0.0 5.0 2 3
- 0.347768 0 7 tcp 1040 ------- 0 0.0 5.0 2 3
r 0.387292 7 5 tcp 1040 ------- 0 0.0 5.0 1 2
h 0.387292 5 7 ack 40 ------- 0 5.0 0.0 1 4
+ 0.427292 5 7 ack 40 ------- 0 5.0 0.0 1 4
- 0.427292 5 7 ack 40 ------- 0 5.0 0.0 1 4
r 0.429932 7 5 tcp 1040 ------- 0 0.0 5.0 2 3
h 0.429932 5 7 ack 40 ------- 0 5.0 0.0 2 5
r 0.469856 7 0 ack 40 ------- 0 5.0 0.0 1 4
h 0.469856 0 7 tcp 1040 ------- 0 0.0 5.0 3 6
h 0.469856 0 7 tcp 1040 ------- 0 0.0 5.0 4 7
+ 0.469932 5 7 ack 40 ------- 0 5.0 0.0 2 5
- 0.469932 5 7 ack 40 ------- 0 5.0 0.0 2 5
+ 0.509856 0 7 tcp 1040 ------- 0 0.0 5.0 3 6
- 0.509856 0 7 tcp 1040 ------- 0 0.0 5.0 3 6
+ 0.509856 0 7 tcp 1040 ------- 0 0.0 5.0 4 7
r 0.512496 7 0 ack 40 ------- 0 5.0 0.0 2 5
h 0.512496 0 7 tcp 1040 ------- 0 0.0 5.0 5 8
h 0.512496 0 7 tcp 1040 ------- 0 0.0 5.0 6 9
- 0.552496 0 7 tcp 1040 ------- 0 0.0 5.0 4 7
+ 0.552496 0 7 tcp 1040 ------- 0 0.0 5.0 5 8
+ 0.552496 0 7 tcp 1040 ------- 0 0.0 5.0 6 9
r 0.59202 7 5 tcp 1040 ------- 0 0.0 5.0 3 6
h 0.59202 5 7 ack 40 ------- 0 5.0 0.0 3 10
- 0.595136 0 7 tcp 1040 ------- 0 0.0 5.0 5 8
+ 0.63202 5 7 ack 40 ------- 0 5.0 0.0 3 10
- 0.63202 5 7 ack 40 ------- 0 5.0 0.0 3 10
r 0.63466 7 5 tcp 1040 ------- 0 0.0 5.0 4 7
h 0.63466 5 7 ack 40 ------- 0 5.0 0.0 4 11
- 0.637776 0 7 tcp 1040 ------- 0 0.0 5.0 6 9
+ 0.67466 5 7 ack 40 ------- 0 5.0 0.0 4 11
- 0.67466 5 7 ack 40 ------- 0 5.0 0.0 4 11
r 0.6773 7 5 tcp 1040 ------- 0 0.0 5.0 5 8
h 0.6773 5 7 ack 40 ------- 0 5.0 0.0 5 12
r 0.680984 7 0 ack 40 ------- 0 5.0 0.0 3 10
h 0.680984 0 7 tcp 1040 ------- 0 0.0 5.0 7 13
h 0.680984 0 7 tcp 1040 ------- 0 0.0 5.0 8 14
+ 0.7173 5 7 ack 40 ------- 0 5.0 0.0 5 12
- 0.7173 5 7 ack 40 ------- 0 5.0 0.0 5 12
+ 0.720984 0 7 tcp 1040 ------- 0 0.0 5.0 7 13
- 0.720984 0 7 tcp 1040 ------- 0 0.0 5.0 7 13
+ 0.720984 0 7 tcp 1040 ------- 0 0.0 5.0 8 14
r 0.723628 7 5 tcp 1040 ------- 0 0.0 5.0 6 9
h 0.723628 5 7 ack 40 ------- 0 5.0 0.0 6 15
r 0.726672 7 0 ack 40 ------- 0 5.0 0.0 4 11
h 0.726672 0 7 tcp 1040 ------- 0 0.0 5.0 9 16
h 0.726672 0 7 tcp 1040 ------- 0 0.0 5.0 10 17
r 0.759864 7 0 ack 40 ------- 0 5.0 0.0 5 12
h 0.759864 0 7 tcp 1040 ------- 0 0.0 5.0 11 18
h 0.759864 0 7 tcp 1040 ------- 0 0.0 5.0 12 19
- 0.763624 0 7 tcp 1040 ------- 0 0.0 5.0 8 14
+ 0.763628 5 7 ack 40 ------- 0 5.0 0.0 6 15
- 0.763628 5 7 ack 40 ------- 0 5.0 0.0 6 15
+ 0.766672 0 7 tcp 1040 ------- 0 0.0 5.0 9 16
+ 0.766672 0 7 tcp 1040 ------- 0 0.0 5.0 10 17
+ 0.799864 0 7 tcp 1040 ------- 0 0.0 5.0 11 18
+ 0.799864 0 7 tcp 1040 ------- 0 0.0 5.0 12 19
r 0.803148 7 5 tcp 1040 ------- 0 0.0 5.0 7 13
h 0.803148 5 7 ack 40 ------- 0 5.0 0.0 7 20
- 0.806912 0 7 tcp 1040 ------- 0 0.0 5.0 9 16
+ 0.843148 5 7 ack 40 ------- 0 5.0 0.0 7 20
r 0.846436 7 5 tcp 1040 ------- 0 0.0 5.0 8 14
h 0.846436 5 7 ack 40 ------- 0 5.0 0.0 8 21
- 0.85276 0 7 tcp 1040 ------- 0 0.0 5.0 10 17
+ 0.886436 5 7 ack 40 ------- 0 5.0 0.0 8 21
r 0.892284 7 5 tcp 1040 ------- 0 0.0 5.0 9 16
h 0.892284 5 7 ack 40 ------- 0 5.0 0.0 9 22
- 0.896048 0 7 tcp 1040 ------- 0 0.0 5.0 11 18
+ 0.932284 5 7 ack 40 ------- 0 5.0 0.0 9 22
r 0.935572 7 5 tcp 1040 ------- 0 0.0 5.0 10 17
h 0.935572 5 7 ack 40 ------- 0 5.0 0.0 10 23
- 0.941896 0 7 tcp 1040 ------- 0 0.0 5.0 12 19
+ 0.975572 5 7 ack 40 ------- 0 5.0 0.0 10 23
r 0.98142 7 5 tcp 1040 ------- 0 0.0 5.0 11 18
h 0.98142 5 7 ack 40 ------- 0 5.0 0.0 11 24
- 1.00702 5 7 ack 40 ------- 0 5.0 0.0 7 20
- 1.01006 5 7 ack 40 ------- 0 5.0 0.0 8 21
- 1.0131 5 7 ack 40 ------- 0 5.0 0.0 9 22
- 1.01614 5 7 ack 40 ------- 0 5.0 0.0 10 23
+ 1.02142 5 7 ack 40 ------- 0 5.0 0.0 11 24
- 1.02142 5 7 ack 40 ------- 0 5.0 0.0 11 24
r 1.024708 7 5 tcp 1040 ------- 0 0.0 5.0 12 19
h 1.024708 5 7 ack 40 ------- 0 5.0 0.0 12 25
r 1.046544 7 0 ack 40 ------- 0 5.0 0.0 6 15
h 1.046544 0 7 tcp 1040 ------- 0 0.0 5.0 13 26
h 1.046544 0 7 tcp 1040 ------- 0 0.0 5.0 14 27
r 1.049584 7 0 ack 40 ------- 0 5.0 0.0 7 20
h 1.049584 0 7 tcp 1040 ------- 0 0.0 5.0 15 28
h 1.049584 0 7 tcp 1040 ------- 0 0.0 5.0 16 29
r 1.052624 7 0 ack 40 ------- 0 5.0 0.0 8 21
h 1.052624 0 7 tcp 1040 ------- 0 0.0 5.0 17 30
h 1.052624 0 7 tcp 1040 ------- 0 0.0 5.0 18 31
r 1.055664 7 0 ack 40 ------- 0 5.0 0.0 9 22
h 1.055664 0 7 tcp 1040 ------- 0 0.0 5.0 19 32
h 1.055664 0 7 tcp 1040 ------- 0 0.0 5.0 20 33
r 1.058704 7 0 ack 40 ------- 0 5.0 0.0 10 23
h 1.058704 0 7 tcp 1040 ------- 0 0.0 5.0 21 34
h 1.058704 0 7 tcp 1040 ------- 0 0.0 5.0 22 35
r 1.063984 7 0 ack 40 ------- 0 5.0 0.0 11 24
h 1.063984 0 7 tcp 1040 ------- 0 0.0 5.0 23 36
h 1.063984 0 7 tcp 1040 ------- 0 0.0 5.0 24 37
+ 1.064708 5 7 ack 40 ------- 0 5.0 0.0 12 25
- 1.064708 5 7 ack 40 ------- 0 5.0 0.0 12 25
+ 1.086544 0 7 tcp 1040 ------- 0 0.0 5.0 13 26
- 1.086544 0 7 tcp 1040 ------- 0 0.0 5.0 13 26
+ 1.086544 0 7 tcp 1040 ------- 0 0.0 5.0 14 27
+ 1.089584 0 7 tcp 1040 ------- 0 0.0 5.0 15 28
+ 1.089584 0 7 tcp 1040 ------- 0 0.0 5.0 16 29
+ 1.092624 0 7 tcp 1040 ------- 0 0.0 5.0 17 30
+ 1.092624 0 7 tcp 1040 ------- 0 0.0 5.0 18 31
+ 1.095664 0 7 tcp 1040 ------- 0 0.0 5.0 19 32
+ 1.095664 0 7 tcp 1040 ------- 0 0.0 5.0 20 33
+ 1.098704 0 7 tcp 1040 ------- 0 0.0 5.0 21 34
+ 1.098704 0 7 tcp 1040 ------- 0 0.0 5.0 22 35
+ 1.103984 0 7 tcp 1040 ------- 0 0.0 5.0 23 36
+ 1.103984 0 7 tcp 1040 ------- 0 0.0 5.0 24 37
r 1.107272 7 0 ack 40 ------- 0 5.0 0.0 12 25
h 1.107272 0 7 tcp 1040 ------- 0 0.0 5.0 25 38
h 1.107272 0 7 tcp 1040 ------- 0 0.0 5.0 26 39
- 1.129184 0 7 tcp 1040 ------- 0 0.0 5.0 14 27
+ 1.147272 0 7 tcp 1040 ------- 0 0.0 5.0 25 38
+ 1.147272 0 7 tcp 1040 ------- 0 0.0 5.0 26 39
r 1.168708 7 5 tcp 1040 ------- 0 0.0 5.0 13 26
h 1.168708 5 7 ack 40 ------- 0 5.0 0.0 13 40
- 1.171824 0 7 tcp 1040 ------- 0 0.0 5.0 15 28
+ 1.208708 5 7 ack 40 ------- 0 5.0 0.0 13 40
- 1.208708 5 7 ack 40 ------- 0 5.0 0.0 13 40
r 1.211348 7 5 tcp 1040 ------- 0 0.0 5.0 14 27
h 1.211348 5 7 ack 40 ------- 0 5.0 0.0 14 41
- 1.214464 0 7 tcp 1040 ------- 0 0.0 5.0 16 29
+ 1.251348 5 7 ack 40 ------- 0 5.0 0.0 14 41
r 1.253988 7 5 tcp 1040 ------- 0 0.0 5.0 15 28
h 1.253988 5 7 ack 40 ------- 0 5.0 0.0 15 42
- 1.257752 0 7 tcp 1040 ------- 0 0.0 5.0 17 30
+ 1.293988 5 7 ack 40 ------- 0 5.0 0.0 15 42
r 1.297276 7 5 tcp 1040 ------- 0 0.0 5.0 16 29
h 1.297276 5 7 ack 40 ------- 0 5.0 0.0 16 43
- 1.3036 0 7 tcp 1040 ------- 0 0.0 5.0 18 31
- 1.310492 5 7 ack 40 ------- 0 5.0 0.0 14 41
- 1.31418 5 7 ack 40 ------- 0 5.0 0.0 15 42
+ 1.337276 5 7 ack 40 ------- 0 5.0 0.0 16 43
- 1.337276 5 7 ack 40 ------- 0 5.0 0.0 16 43
r 1.343124 7 5 tcp 1040 ------- 0 0.0 5.0 17 30
h 1.343124 5 7 ack 40 ------- 0 5.0 0.0 17 44
r 1.350016 7 0 ack 40 ------- 0 5.0 0.0 13 40
h 1.350016 0 7 tcp 1040 ------- 0 0.0 5.0 27 45
h 1.350016 0 7 tcp 1040 ------- 0 0.0 5.0 28 46
r 1.353704 7 0 ack 40 ------- 0 5.0 0.0 14 41
h 1.353704 0 7 tcp 1040 ------- 0 0.0 5.0 29 47
h 1.353704 0 7 tcp 1040 ------- 0 0.0 5.0 30 48
r 1.359952 7 0 ack 40 ------- 0 5.0 0.0 15 42
h 1.359952 0 7 tcp 1040 ------- 0 0.0 5.0 31 49
h 1.359952 0 7 tcp 1040 ------- 0 0.0 5.0 32 50
r 1.37984 7 0 ack 40 ------- 0 5.0 0.0 16 43
h 1.37984 0 7 tcp 1040 ------- 0 0.0 5.0 33 51
h 1.37984 0 7 tcp 1040 ------- 0 0.0 5.0 34 52
+ 1.383124 5 7 ack 40 ------- 0 5.0 0.0 17 44
- 1.383124 5 7 ack 40 ------- 0 5.0 0.0 17 44
+ 1.390016 0 7 tcp 1040 ------- 0 0.0 5.0 27 45
+ 1.390016 0 7 tcp 1040 ------- 0 0.0 5.0 28 46
- 1.390744 0 7 tcp 1040 ------- 0 0.0 5.0 19 32
+ 1.393704 0 7 tcp 1040 ------- 0 0.0 5.0 29 47
+ 1.393704 0 7 tcp 1040 ------- 0 0.0 5.0 30 48
+ 1.399952 0 7 tcp 1040 ------- 0 0.0 5.0 31 49
+ 1.399952 0 7 tcp 1040 ------- 0 0.0 5.0 32 50
+ 1.41984 0 7 tcp 1040 ------- 0 0.0 5.0 33 51
+ 1.41984 0 7 tcp 1040 ------- 0 0.0 5.0 34 52
r 1.430268 7 5 tcp 1040 ------- 0 0.0 5.0 18 31
h 1.430268 5 7 ack 40 ------- 0 5.0 0.0 18 53
r 1.43716 7 0 ack 40 ------- 0 5.0 0.0 17 44
h 1.43716 0 7 tcp 1040 ------- 0 0.0 5.0 35 54
h 1.43716 0 7 tcp 1040 ------- 0 0.0 5.0 36 55
- 1.442352 0 7 tcp 1040 ------- 0 0.0 5.0 20 33
+ 1.470268 5 7 ack 40 ------- 0 5.0 0.0 18 53
- 1.470268 5 7 ack 40 ------- 0 5.0 0.0 18 53
+ 1.47716 0 7 tcp 1040 ------- 0 0.0 5.0 35 54
+ 1.47716 0 7 tcp 1040 ------- 0 0.0 5.0 36 55
r 1.481876 7 5 tcp 1040 ------- 0 0.0 5.0 19 32
h 1.481876 5 7 ack 40 ------- 0 5.0 0.0 19 56
- 1.484992 0 7 tcp 1040 ------- 0 0.0 5.0 21 34
+ 1.521876 5 7 ack 40 ------- 0 5.0 0.0 19 56
- 1.521876 5 7 ack 40 ------- 0 5.0 0.0 19 56
r 1.524516 7 5 tcp 1040 ------- 0 0.0 5.0 20 33
h 1.524516 5 7 ack 40 ------- 0 5.0 0.0 20 57
r 1.533968 7 0 ack 40 ------- 0 5.0 0.0 18 53
h 1.533968 0 7 tcp 1040 ------- 0 0.0 5.0 37 58
h 1.533968 0 7 tcp 1040 ------- 0 0.0 5.0 38 59
- 1.53916 0 7 tcp 1040 ------- 0 0.0 5.0 22 35
+ 1.564516 5 7 ack 40 ------- 0 5.0 0.0 20 57
+ 1.573968 0 7 tcp 1040 ------- 0 0.0 5.0 37 58
+ 1.573968 0 7 tcp 1040 ------- 0 0.0 5.0 38 59
r 1.578684 7 5 tcp 1040 ------- 0 0.0 5.0 21 34
h 1.578684 5 7 ack 40 ------- 0 5.0 0.0 21 60
- 1.585648 0 7 tcp 1040 ------- 0 0.0 5.0 23 36
- 1.589332 5 7 ack 40 ------- 0 5.0 0.0 20 57
+ 1.618684 5 7 ack 40 ------- 0 5.0 0.0 21 60
- 1.618684 5 7 ack 40 ------- 0 5.0 0.0 21 60
r 1.625172 7 5 tcp 1040 ------- 0 0.0 5.0 22 35
h 1.625172 5 7 ack 40 ------- 0 5.0 0.0 22 61
r 1.628856 7 0 ack 40 ------- 0 5.0 0.0 19 56
h 1.628856 0 7 tcp 1040 ------- 0 0.0 5.0 39 62
r 1.640864 7 0 ack 40 ------- 0 5.0 0.0 20 57
h 1.640864 0 7 tcp 1040 ------- 0 0.0 5.0 40 63
- 1.653744 0 7 tcp 1040 ------- 0 0.0 5.0 24 37
+ 1.665172 5 7 ack 40 ------- 0 5.0 0.0 22 61
+ 1.668856 0 7 tcp 1040 ------- 0 0.0 5.0 39 62
+ 1.680864 0 7 tcp 1040 ------- 0 0.0 5.0 40 63
r 1.693268 7 5 tcp 1040 ------- 0 0.0 5.0 23 36
h 1.693268 5 7 ack 40 ------- 0 5.0 0.0 23 64
- 1.71112 0 7 tcp 1040 ------- 0 0.0 5.0 25 38
- 1.723132 5 7 ack 40 ------- 0 5.0 0.0 22 61
+ 1.733268 5 7 ack 40 ------- 0 5.0 0.0 23 64
- 1.733268 5 7 ack 40 ------- 0 5.0 0.0 23 64
r 1.750644 7 5 tcp 1040 ------- 0 0.0 5.0 24 37
h 1.750644 5 7 ack 40 ------- 0 5.0 0.0 24 65
r 1.762656 7 0 ack 40 ------- 0 5.0 0.0 21 60
h 1.762656 0 7 tcp 1040 ------- 0 0.0 5.0 41 66
r 1.768904 7 0 ack 40 ------- 0 5.0 0.0 22 61
h 1.768904 0 7 tcp 1040 ------- 0 0.0 5.0 42 67
r 1.775832 7 0 ack 40 ------- 0 5.0 0.0 23 64
h 1.775832 0 7 tcp 1040 ------- 0 0.0 5.0 43 68
- 1.781776 0 7 tcp 1040 ------- 0 0.0 5.0 26 39
+ 1.790644 5 7 ack 40 ------- 0 5.0 0.0 24 65
- 1.790644 5 7 ack 40 ------- 0 5.0 0.0 24 65
+ 1.802656 0 7 tcp 1040 ------- 0 0.0 5.0 41 66
+ 1.808904 0 7 tcp 1040 ------- 0 0.0 5.0 42 67
+ 1.815832 0 7 tcp 1040 ------- 0 0.0 5.0 43 68
r 1.8213 7 5 tcp 1040 ------- 0 0.0 5.0 25 38
h 1.8213 5 7 ack 40 ------- 0 5.0 0.0 25 69
- 1.824416 0 7 tcp 1040 ------- 0 0.0 5.0 27 45
+ 1.8613 5 7 ack 40 ------- 0 5.0 0.0 25 69
r 1.86394 7 5 tcp 1040 ------- 0 0.0 5.0 26 39
h 1.86394 5 7 ack 40 ------- 0 5.0 0.0 26 70
- 1.870904 0 7 tcp 1040 ------- 0 0.0 5.0 28 46
+ 1.90394 5 7 ack 40 ------- 0 5.0 0.0 26 70
r 1.910428 7 5 tcp 1040 ------- 0 0.0 5.0 27 45
h 1.910428 5 7 ack 40 ------- 0 5.0 0.0 27 71
- 1.914192 0 7 tcp 1040 ------- 0 0.0 5.0 29 47
+ 1.950428 5 7 ack 40 ------- 0 5.0 0.0 27 71
r 1.953716 7 5 tcp 1040 ------- 0 0.0 5.0 28 46
h 1.953716 5 7 ack 40 ------- 0 5.0 0.0 28 72
- 1.96004 0 7 tcp 1040 ------- 0 0.0 5.0 30 48
+ 1.993716 5 7 ack 40 ------- 0 5.0 0.0 28 72
r 1.999564 7 5 tcp 1040 ------- 0 0.0 5.0 29 47
h 1.999564 5 7 ack 40 ------- 0 5.0 0.0 29 73
- 2.003328 0 7 tcp 1040 ------- 0 0.0 5.0 31 49
+ 2.039564 5 7 ack 40 ------- 0 5.0 0.0 29 73
r 2.042852 7 5 tcp 1040 ------- 0 0.0 5.0 30 48
h 2.042852 5 7 ack 40 ------- 0 5.0 0.0 30 74
- 2.045968 0 7 tcp 1040 ------- 0 0.0 5.0 32 50
+ 2.082852 5 7 ack 40 ------- 0 5.0 0.0 30 74
r 2.085492 7 5 tcp 1040 ------- 0 0.0 5.0 31 49
h 2.085492 5 7 ack 40 ------- 0 5.0 0.0 31 75
- 2.091816 0 7 tcp 1040 ------- 0 0.0 5.0 33 51
+ 2.125492 5 7 ack 40 ------- 0 5.0 0.0 31 75
r 2.13134 7 5 tcp 1040 ------- 0 0.0 5.0 32 50
h 2.13134 5 7 ack 40 ------- 0 5.0 0.0 32 76
- 2.134456 0 7 tcp 1040 ------- 0 0.0 5.0 34 52
+ 2.17134 5 7 ack 40 ------- 0 5.0 0.0 32 76
r 2.17398 7 5 tcp 1040 ------- 0 0.0 5.0 33 51
h 2.17398 5 7 ack 40 ------- 0 5.0 0.0 33 77
- 2.177744 0 7 tcp 1040 ------- 0 0.0 5.0 35 54
+ 2.21398 5 7 ack 40 ------- 0 5.0 0.0 33 77
r 2.217268 7 5 tcp 1040 ------- 0 0.0 5.0 34 52
h 2.217268 5 7 ack 40 ------- 0 5.0 0.0 34 78
- 2.220384 0 7 tcp 1040 ------- 0 0.0 5.0 36 55
+ 2.257268 5 7 ack 40 ------- 0 5.0 0.0 34 78
r 2.259908 7 5 tcp 1040 ------- 0 0.0 5.0 35 54
h 2.259908 5 7 ack 40 ------- 0 5.0 0.0 35 79
- 2.263024 0 7 tcp 1040 ------- 0 0.0 5.0 37 58
+ 2.299908 5 7 ack 40 ------- 0 5.0 0.0 35 79
r 2.302548 7 5 tcp 1040 ------- 0 0.0 5.0 36 55
h 2.302548 5 7 ack 40 ------- 0 5.0 0.0 36 80
- 2.305664 0 7 tcp 1040 ------- 0 0.0 5.0 38 59
+ 2.342548 5 7 ack 40 ------- 0 5.0 0.0 36 80
r 2.345188 7 5 tcp 1040 ------- 0 0.0 5.0 37 58
h 2.345188 5 7 ack 40 ------- 0 5.0 0.0 37 81
- 2.348304 0 7 tcp 1040 ------- 0 0.0 5.0 39 62
+ 2.385188 5 7 ack 40 ------- 0 5.0 0.0 37 81
r 2.387828 7 5 tcp 1040 ------- 0 0.0 5.0 38 59
h 2.387828 5 7 ack 40 ------- 0 5.0 0.0 38 82
- 2.390944 0 7 tcp 1040 ------- 0 0.0 5.0 40 63
h 2.395832 0 7 tcp 1040 ---A--- 0 0.0 5.0 24 83
+ 2.427828 5 7 ack 40 ------- 0 5.0 0.0 38 82
r 2.430468 7 5 tcp 1040 ------- 0 0.0 5.0 39 62
h 2.430468 5 7 ack 40 ------- 0 5.0 0.0 39 84
- 2.433584 0 7 tcp 1040 ------- 0 0.0 5.0 41 66
+ 2.435832 0 7 tcp 1040 ---A--- 0 0.0 5.0 24 83
+ 2.470468 5 7 ack 40 ------- 0 5.0 0.0 39 84
r 2.473108 7 5 tcp 1040 ------- 0 0.0 5.0 40 63
h 2.473108 5 7 ack 40 ------- 0 5.0 0.0 40 85
- 2.476224 0 7 tcp 1040 ------- 0 0.0 5.0 42 67
+ 2.513108 5 7 ack 40 ------- 0 5.0 0.0 40 85
r 2.515748 7 5 tcp 1040 ------- 0 0.0 5.0 41 66
h 2.515748 5 7 ack 40 ------- 0 5.0 0.0 41 86
- 2.519512 0 7 tcp 1040 ------- 0 0.0 5.0 43 68
+ 2.555748 5 7 ack 40 ------- 0 5.0 0.0 41 86
r 2.559036 7 5 tcp 1040 ------- 0 0.0 5.0 42 67
h 2.559036 5 7 ack 40 ------- 0 5.0 0.0 42 87
- 2.5628 0 7 tcp 1040 ---A--- 0 0.0 5.0 24 83
+ 2.599036 5 7 ack 40 ------- 0 5.0 0.0 42 87
r 2.602324 7 5 tcp 1040 ------- 0 0.0 5.0 43 68
h 2.602324 5 7 ack 40 ------- 0 5.0 0.0 43 88
+ 2.642324 5 7 ack 40 ------- 0 5.0 0.0 43 88
r 2.644964 7 5 tcp 1040 ---A--- 0 0.0 5.0 24 83
h 2.644964 5 7 ack 40 ------- 0 5.0 0.0 43 89
+ 2.684964 5 7 ack 40 ------- 0 5.0 0.0 43 89
